TITLE = "vncfd field"
VARIABLES = "X", "Y", "rho", "u", "v", "p", "Mach", "T"
ZONE T="1", I=65, J=65, DATAPACKING=BLOCK, VARLOCATION=([3,4,5,6,7,8]=CELLCENTERED)
0.00000000 0.00039687 0.00079375 0.00119062 0.00158750 0.00198438 0.00238125 0.00277812 0.00317500 0.00357187 0.00396875 0.00436562 0.00476250 0.00515937 0.00555625 0.00595313 0.00635000 0.00674687 0.00714375 0.00754062 0.00793750 0.00833437 0.00873125 0.00912812 0.00952500 0.00992188 0.01031875 0.01071562 0.01111250 0.01150937 0.01190625 0.01230312 0.01270000 0.01309687 0.01349375 0.01389063 0.01428750 0.01468437 0.01508125 0.01547812 0.01587500 0.01627187 0.01666875 0.01706563 0.01746250 0.01785938 0.01825625 0.01865312 0.01905000 0.01944687 0.01984375 0.02024062 0.02063750 0.02103437 0.02143125 0.02182813 0.02222500 0.02262187 0.02301875 0.02341562 0.02381250 0.02420937 0.02460625 0.02500312 0.02540000 0.00000000 0.00039687 0.00079375 0.00119062 0.00158750 0.00198438 0.00238125 0.00277812 0.00317500 0.00357187 0.00396875 0.00436562 0.00476250 0.00515937 0.00555625 0.00595313 0.00635000 0.00674687 0.00714375 0.00754062 0.00793750 0.00833437 0.00873125 0.00912812 0.00952500 0.00992188 0.01031875 0.01071562 0.01111250 0.01150937 0.01190625 0.01230312 0.01270000 0.01309687 0.01349375 0.01389063 0.01428750 0.01468437 0.01508125 0.01547812 0.01587500 0.01627187 0.01666875 0.01706563 0.01746250 0.01785938 0.01825625 0.01865312 0.01905000 0.01944687 0.01984375 0.02024062 0.02063750 0.02103437 0.02143125 0.02182813 0.02222500 0.02262187 0.02301875 0.02341562 0.02381250 0.02420937 0.02460625 0.02500312 0.02540000 0.00000000 0.00039687 0.00079375 0.00119062 0.00158750 0.00198438 0.00238125 0.00277812 0.00317500 0.00357187 0.00396875 0.00436562 0.00476250 0.00515937 0.00555625 0.00595313 0.00635000 0.00674687 0.00714375 0.00754062 0.00793750 0.00833437 0.00873125 0.00912812 0.00952500 0.00992188 0.01031875 0.01071562 0.01111250 0.01150937 0.01190625 0.01230312 0.01270000 0.01309687 0.01349375 0.01389063 0.01428750 0.01468437 0.01508125 0.01547812 0.01587500 0.01627187 0.01666875 0.01706563 0.01746250 0.01785938 0.01825625 0.01865312 0.01905000 0.01944687 0.01984375 0.02024062 0.02063750 0.02103437 0.02143125 0.02182813 0.02222500 0.02262187 0.02301875 0.02341562 0.02381250 0.02420937 0.02460625 0.02500312 0.02540000 0.00000000 0.00039687 0.00079375 0.00119062 0.00158750 0.00198438 0.00238125 0.00277812 0.00317500 0.00357187 0.00396875 0.00436562 0.00476250 0.00515937 0.00555625 0.00595313 0.00635000 0.00674687 0.00714375 0.00754062 0.00793750 0.00833437 0.00873125 0.00912812 0.00952500 0.00992188 0.01031875 0.01071562 0.01111250 0.01150937 0.01190625 0.01230312 0.01270000 0.01309687 0.01349375 0.01389063 0.01428750 0.01468437 0.01508125 0.01547812 0.01587500 0.01627187 0.01666875 0.01706563 0.01746250 0.01785938 0.01825625 0.01865312 0.01905000 0.01944687 0.01984375 0.02024062 0.02063750 0.02103437 0.02143125 0.02182813 0.02222500 0.02262187 0.02301875 0.02341562 0.02381250 0.02420937 0.02460625 0.02500312 0.02540000 0.00000000 0.00039687 0.00079375 0.00119062 0.00158750 0.00198438 0.00238125 0.00277812 0.00317500 0.00357187 0.00396875 0.00436562 0.00476250 0.00515937 0.00555625 0.00595313 0.00635000 0.00674687 0.00714375 0.00754062 0.00793750 0.00833437 0.00873125 0.00912812 0.00952500 0.00992188 0.01031875 0.01071562 0.01111250 0.01150937 0.01190625 0.01230312 0.01270000 0.01309687 0.01349375 0.01389063 0.01428750 0.01468437 0.01508125 0.01547812 0.01587500 0.01627187 0.01666875 0.01706563 0.01746250 0.01785938 0.01825625 0.01865312 0.01905000 0.01944687 0.01984375 0.02024062 0.02063750 0.02103437 0.02143125 0.02182813 0.02222500 0.02262187 0.02301875 0.02341562 0.02381250 0.02420937 0.02460625 0.02500312 0.02540000 0.00000000 0.00039687 0.00079375 0.00119062 0.00158750 0.00198438 0.00238125 0.00277812 0.00317500 0.00357187 0.00396875 0.00436562 0.00476250 0.00515937 0.00555625 0.00595313 0.00635000 0.00674687 0.00714375 0.00754062 0.00793750 0.00833437 0.00873125 0.00912812 0.00952500 0.00992188 0.01031875 0.01071562 0.01111250 0.01150937 0.01190625 0.01230312 0.01270000 0.01309687 0.01349375 0.01389063 0.01428750 0.01468437 0.01508125 0.01547812 0.01587500 0.01627187 0.01666875 0.01706563 0.01746250 0.01785938 0.01825625 0.01865312 0.01905000 0.01944687 0.01984375 0.02024062 0.02063750 0.02103437 0.02143125 0.02182813 0.02222500 0.02262187 0.02301875 0.02341562 0.02381250 0.02420937 0.02460625 0.02500312 0.02540000 0.00000000 0.00039687 0.00079375 0.00119062 0.00158750 0.00198438 0.00238125 0.00277812 0.00317500 0.00357187 0.00396875 0.00436562 0.00476250 0.00515937 0.00555625 0.00595313 0.00635000 0.00674687 0.00714375 0.00754062 0.00793750 0.00833437 0.00873125 0.00912812 0.00952500 0.00992188 0.01031875 0.01071562 0.01111250 0.01150937 0.01190625 0.01230312 0.01270000 0.01309687 0.01349375 0.01389063 0.01428750 0.01468437 0.01508125 0.01547812 0.01587500 0.01627187 0.01666875 0.01706563 0.01746250 0.01785938 0.01825625 0.01865312 0.01905000 0.01944687 0.01984375 0.02024062 0.02063750 0.02103437 0.02143125 0.02182813 0.02222500 0.02262187 0.02301875 0.02341562 0.02381250 0.02420937 0.02460625 0.02500312 0.02540000 0.00000000 0.00039687 0.00079375 0.00119062 0.00158750 0.00198438 0.00238125 0.00277812 0.00317500 0.00357187 0.00396875 0.00436562 0.00476250 0.00515937 0.00555625 0.00595313 0.00635000 0.00674687 0.00714375 0.00754062 0.00793750 0.00833437 0.00873125 0.00912812 0.00952500 0.00992188 0.01031875 0.01071562 0.01111250 0.01150937 0.01190625 0.01230312 0.01270000 0.01309687 0.01349375 0.01389063 0.01428750 0.01468437 0.01508125 0.01547812 0.01587500 0.01627187 0.01666875 0.01706563 0.01746250 0.01785938 0.01825625 0.01865312 0.01905000 0.01944687 0.01984375 0.02024062 0.02063750 0.02103437 0.02143125 0.02182813 0.02222500 0.02262187 0.02301875 0.02341562 0.02381250 0.02420937 0.02460625 0.02500312 0.02540000 0.00000000 0.00039687 0.00079375 0.00119062 0.00158750 0.00198438 0.00238125 0.00277812 0.00317500 0.00357187 0.00396875 0.00436562 0.00476250 0.00515937 0.00555625 0.00595313 0.00635000 0.00674687 0.00714375 0.00754062 0.00793750 0.00833437 0.00873125 0.00912812 0.00952500 0.00992188 0.01031875 0.01071562 0.01111250 0.01150937 0.01190625 0.01230312 0.01270000 0.01309687 0.01349375 0.01389063 0.01428750 0.01468437 0.01508125 0.01547812 0.01587500 0.01627187 0.01666875 0.01706563 0.01746250 0.01785938 0.01825625 0.01865312 0.01905000 0.01944687 0.01984375 0.02024062 0.02063750 0.02103437 0.02143125 0.02182813 0.02222500 0.02262187 0.02301875 0.02341562 0.02381250 0.02420937 0.02460625 0.02500312 0.02540000 0.00000000 0.00039687 0.00079375 0.00119062 0.00158750 0.00198438 0.00238125 0.00277812 0.00317500 0.00357187 0.00396875 0.00436562 0.00476250 0.00515937 0.00555625 0.00595313 0.00635000 0.00674687 0.00714375 0.00754062 0.00793750 0.00833437 0.00873125 0.00912812 0.00952500 0.00992188 0.01031875 0.01071562 0.01111250 0.01150937 0.01190625 0.01230312 0.01270000 0.01309687 0.01349375 0.01389063 0.01428750 0.01468437 0.01508125 0.01547812 0.01587500 0.01627187 0.01666875 0.01706563 0.01746250 0.01785938 0.01825625 0.01865312 0.01905000 0.01944687 0.01984375 0.02024062 0.02063750 0.02103437 0.02143125 0.02182813 0.02222500 0.02262187 0.02301875 0.02341562 0.02381250 0.02420937 0.02460625 0.02500312 0.02540000 0.00000000 0.00039687 0.00079375 0.00119062 0.00158750 0.00198438 0.00238125 0.00277812 0.00317500 0.00357187 0.00396875 0.00436562 0.00476250 0.00515937 0.00555625 0.00595313 0.00635000 0.00674687 0.00714375 0.00754062 0.00793750 0.00833437 0.00873125 0.00912812 0.00952500 0.00992188 0.01031875 0.01071562 0.01111250 0.01150937 0.01190625 0.01230312 0.01270000 0.01309687 0.01349375 0.01389063 0.01428750 0.01468437 0.01508125 0.01547812 0.01587500 0.01627187 0.01666875 0.01706563 0.01746250 0.01785938 0.01825625 0.01865312 0.01905000 0.01944687 0.01984375 0.02024062 0.02063750 0.02103437 0.02143125 0.02182813 0.02222500 0.02262187 0.02301875 0.02341562 0.02381250 0.02420937 0.02460625 0.02500312 0.02540000 0.00000000 0.00039687 0.00079375 0.00119062 0.00158750 0.00198438 0.00238125 0.00277812 0.00317500 0.00357187 0.00396875 0.00436562 0.00476250 0.00515937 0.00555625 0.00595313 0.00635000 0.00674687 0.00714375 0.00754062 0.00793750 0.00833437 0.00873125 0.00912812 0.00952500 0.00992188 0.01031875 0.01071562 0.01111250 0.01150937 0.01190625 0.01230312 0.01270000 0.01309687 0.01349375 0.01389063 0.01428750 0.01468437 0.01508125 0.01547812 0.01587500 0.01627187 0.01666875 0.01706563 0.01746250 0.01785938 0.01825625 0.01865312 0.01905000 0.01944687 0.01984375 0.02024062 0.02063750 0.02103437 0.02143125 0.02182813 0.02222500 0.02262187 0.02301875 0.02341562 0.02381250 0.02420937 0.02460625 0.02500312 0.02540000 0.00000000 0.00039687 0.00079375 0.00119062 0.00158750 0.00198438 0.00238125 0.00277812 0.00317500 0.00357187 0.00396875 0.00436562 0.00476250 0.00515937 0.00555625 0.00595313 0.00635000 0.00674687 0.00714375 0.00754062 0.00793750 0.00833437 0.00873125 0.00912812 0.00952500 0.00992188 0.01031875 0.01071562 0.01111250 0.01150937 0.01190625 0.01230312 0.01270000 0.01309687 0.01349375 0.01389063 0.01428750 0.01468437 0.01508125 0.01547812 0.01587500 0.01627187 0.01666875 0.01706563 0.01746250 0.01785938 0.01825625 0.01865312 0.01905000 0.01944687 0.01984375 0.02024062 0.02063750 0.02103437 0.02143125 0.02182813 0.02222500 0.02262187 0.02301875 0.02341562 0.02381250 0.02420937 0.02460625 0.02500312 0.02540000 0.00000000 0.00039687 0.00079375 0.00119062 0.00158750 0.00198438 0.00238125 0.00277812 0.00317500 0.00357187 0.00396875 0.00436562 0.00476250 0.00515937 0.00555625 0.00595313 0.00635000 0.00674687 0.00714375 0.00754062 0.00793750 0.00833437 0.00873125 0.00912812 0.00952500 0.00992188 0.01031875 0.01071562 0.01111250 0.01150937 0.01190625 0.01230312 0.01270000 0.01309687 0.01349375 0.01389063 0.01428750 0.01468437 0.01508125 0.01547812 0.01587500 0.01627187 0.01666875 0.01706563 0.01746250 0.01785938 0.01825625 0.01865312 0.01905000 0.01944687 0.01984375 0.02024062 0.02063750 0.02103437 0.02143125 0.02182813 0.02222500 0.02262187 0.02301875 0.02341562 0.02381250 0.02420937 0.02460625 0.02500312 0.02540000 0.00000000 0.00039687 0.00079375 0.00119062 0.00158750 0.00198438 0.00238125 0.00277812 0.00317500 0.00357187 0.00396875 0.00436562 0.00476250 0.00515937 0.00555625 0.00595313 0.00635000 0.00674687 0.00714375 0.00754062 0.00793750 0.00833437 0.00873125 0.00912812 0.00952500 0.00992188 0.01031875 0.01071562 0.01111250 0.01150937 0.01190625 0.01230312 0.01270000 0.01309687 0.01349375 0.01389063 0.01428750 0.01468437 0.01508125 0.01547812 0.01587500 0.01627187 0.01666875 0.01706563 0.01746250 0.01785938 0.01825625 0.01865312 0.01905000 0.01944687 0.01984375 0.02024062 0.02063750 0.02103437 0.02143125 0.02182813 0.02222500 0.02262187 0.02301875 0.02341562 0.02381250 0.02420937 0.02460625 0.02500312 0.02540000 0.00000000 0.00039687 0.00079375 0.00119062 0.00158750 0.00198438 0.00238125 0.00277812 0.00317500 0.00357187 0.00396875 0.00436562 0.00476250 0.00515937 0.00555625 0.00595313 0.00635000 0.00674687 0.00714375 0.00754062 0.00793750 0.00833437 0.00873125 0.00912812 0.00952500 0.00992188 0.01031875 0.01071562 0.01111250 0.01150937 0.01190625 0.01230312 0.01270000 0.01309687 0.01349375 0.01389063 0.01428750 0.01468437 0.01508125 0.01547812 0.01587500 0.01627187 0.01666875 0.01706563 0.01746250 0.01785938 0.01825625 0.01865312 0.01905000 0.01944687 0.01984375 0.02024062 0.02063750 0.02103437 0.02143125 0.02182813 0.02222500 0.02262187 0.02301875 0.02341562 0.02381250 0.02420937 0.02460625 0.02500312 0.02540000 0.00000000 0.00039687 0.00079375 0.00119062 0.00158750 0.00198438 0.00238125 0.00277812 0.00317500 0.00357187 0.00396875 0.00436562 0.00476250 0.00515937 0.00555625 0.00595313 0.00635000 0.00674687 0.00714375 0.00754062 0.00793750 0.00833437 0.00873125 0.00912812 0.00952500 0.00992188 0.01031875 0.01071562 0.01111250 0.01150937 0.01190625 0.01230312 0.01270000 0.01309687 0.01349375 0.01389063 0.01428750 0.01468437 0.01508125 0.01547812 0.01587500 0.01627187 0.01666875 0.01706563 0.01746250 0.01785938 0.01825625 0.01865312 0.01905000 0.01944687 0.01984375 0.02024062 0.02063750 0.02103437 0.02143125 0.02182813 0.02222500 0.02262187 0.02301875 0.02341562 0.02381250 0.02420937 0.02460625 0.02500312 0.02540000 0.00000000 0.00039687 0.00079375 0.00119062 0.00158750 0.00198438 0.00238125 0.00277812 0.00317500 0.00357187 0.00396875 0.00436562 0.00476250 0.00515937 0.00555625 0.00595313 0.00635000 0.00674687 0.00714375 0.00754062 0.00793750 0.00833437 0.00873125 0.00912812 0.00952500 0.00992188 0.01031875 0.01071562 0.01111250 0.01150937 0.01190625 0.01230312 0.01270000 0.01309687 0.01349375 0.01389063 0.01428750 0.01468437 0.01508125 0.01547812 0.01587500 0.01627187 0.01666875 0.01706563 0.01746250 0.01785938 0.01825625 0.01865312 0.01905000 0.01944687 0.01984375 0.02024062 0.02063750 0.02103437 0.02143125 0.02182813 0.02222500 0.02262187 0.02301875 0.02341562 0.02381250 0.02420937 0.02460625 0.02500312 0.02540000 0.00000000 0.00039687 0.00079375 0.00119062 0.00158750 0.00198438 0.00238125 0.00277812 0.00317500 0.00357187 0.00396875 0.00436562 0.00476250 0.00515937 0.00555625 0.00595313 0.00635000 0.00674687 0.00714375 0.00754062 0.00793750 0.00833437 0.00873125 0.00912812 0.00952500 0.00992188 0.01031875 0.01071562 0.01111250 0.01150937 0.01190625 0.01230312 0.01270000 0.01309687 0.01349375 0.01389063 0.01428750 0.01468437 0.01508125 0.01547812 0.01587500 0.01627187 0.01666875 0.01706563 0.01746250 0.01785938 0.01825625 0.01865312 0.01905000 0.01944687 0.01984375 0.02024062 0.02063750 0.02103437 0.02143125 0.02182813 0.02222500 0.02262187 0.02301875 0.02341562 0.02381250 0.02420937 0.02460625 0.02500312 0.02540000 0.00000000 0.00039687 0.00079375 0.00119062 0.00158750 0.00198438 0.00238125 0.00277812 0.00317500 0.00357187 0.00396875 0.00436562 0.00476250 0.00515937 0.00555625 0.00595313 0.00635000 0.00674687 0.00714375 0.00754062 0.00793750 0.00833437 0.00873125 0.00912812 0.00952500 0.00992188 0.01031875 0.01071562 0.01111250 0.01150937 0.01190625 0.01230312 0.01270000 0.01309687 0.01349375 0.01389063 0.01428750 0.01468437 0.01508125 0.01547812 0.01587500 0.01627187 0.01666875 0.01706563 0.01746250 0.01785938 0.01825625 0.01865312 0.01905000 0.01944687 0.01984375 0.02024062 0.02063750 0.02103437 0.02143125 0.02182813 0.02222500 0.02262187 0.02301875 0.02341562 0.02381250 0.02420937 0.02460625 0.02500312 0.02540000 0.00000000 0.00039687 0.00079375 0.00119062 0.00158750 0.00198438 0.00238125 0.00277812 0.00317500 0.00357187 0.00396875 0.00436562 0.00476250 0.00515937 0.00555625 0.00595313 0.00635000 0.00674687 0.00714375 0.00754062 0.00793750 0.00833437 0.00873125 0.00912812 0.00952500 0.00992188 0.01031875 0.01071562 0.01111250 0.01150937 0.01190625 0.01230312 0.01270000 0.01309687 0.01349375 0.01389063 0.01428750 0.01468437 0.01508125 0.01547812 0.01587500 0.01627187 0.01666875 0.01706563 0.01746250 0.01785938 0.01825625 0.01865312 0.01905000 0.01944687 0.01984375 0.02024062 0.02063750 0.02103437 0.02143125 0.02182813 0.02222500 0.02262187 0.02301875 0.02341562 0.02381250 0.02420937 0.02460625 0.02500312 0.02540000 0.00000000 0.00039687 0.00079375 0.00119062 0.00158750 0.00198438 0.00238125 0.00277812 0.00317500 0.00357187 0.00396875 0.00436562 0.00476250 0.00515937 0.00555625 0.00595313 0.00635000 0.00674687 0.00714375 0.00754062 0.00793750 0.00833437 0.00873125 0.00912812 0.00952500 0.00992188 0.01031875 0.01071562 0.01111250 0.01150937 0.01190625 0.01230312 0.01270000 0.01309687 0.01349375 0.01389063 0.01428750 0.01468437 0.01508125 0.01547812 0.01587500 0.01627187 0.01666875 0.01706563 0.01746250 0.01785938 0.01825625 0.01865312 0.01905000 0.01944687 0.01984375 0.02024062 0.02063750 0.02103437 0.02143125 0.02182813 0.02222500 0.02262187 0.02301875 0.02341562 0.02381250 0.02420937 0.02460625 0.02500312 0.02540000 0.00000000 0.00039687 0.00079375 0.00119062 0.00158750 0.00198438 0.00238125 0.00277812 0.00317500 0.00357187 0.00396875 0.00436562 0.00476250 0.00515937 0.00555625 0.00595313 0.00635000 0.00674687 0.00714375 0.00754062 0.00793750 0.00833437 0.00873125 0.00912812 0.00952500 0.00992188 0.01031875 0.01071562 0.01111250 0.01150937 0.01190625 0.01230312 0.01270000 0.01309687 0.01349375 0.01389063 0.01428750 0.01468437 0.01508125 0.01547812 0.01587500 0.01627187 0.01666875 0.01706563 0.01746250 0.01785938 0.01825625 0.01865312 0.01905000 0.01944687 0.01984375 0.02024062 0.02063750 0.02103437 0.02143125 0.02182813 0.02222500 0.02262187 0.02301875 0.02341562 0.02381250 0.02420937 0.02460625 0.02500312 0.02540000 0.00000000 0.00039687 0.00079375 0.00119062 0.00158750 0.00198438 0.00238125 0.00277812 0.00317500 0.00357187 0.00396875 0.00436562 0.00476250 0.00515937 0.00555625 0.00595313 0.00635000 0.00674687 0.00714375 0.00754062 0.00793750 0.00833437 0.00873125 0.00912812 0.00952500 0.00992188 0.01031875 0.01071562 0.01111250 0.01150937 0.01190625 0.01230312 0.01270000 0.01309687 0.01349375 0.01389063 0.01428750 0.01468437 0.01508125 0.01547812 0.01587500 0.01627187 0.01666875 0.01706563 0.01746250 0.01785938 0.01825625 0.01865312 0.01905000 0.01944687 0.01984375 0.02024062 0.02063750 0.02103437 0.02143125 0.02182813 0.02222500 0.02262187 0.02301875 0.02341562 0.02381250 0.02420937 0.02460625 0.02500312 0.02540000 0.00000000 0.00039687 0.00079375 0.00119062 0.00158750 0.00198438 0.00238125 0.00277812 0.00317500 0.00357187 0.00396875 0.00436562 0.00476250 0.00515937 0.00555625 0.00595313 0.00635000 0.00674687 0.00714375 0.00754062 0.00793750 0.00833437 0.00873125 0.00912812 0.00952500 0.00992188 0.01031875 0.01071562 0.01111250 0.01150937 0.01190625 0.01230312 0.01270000 0.01309687 0.01349375 0.01389063 0.01428750 0.01468437 0.01508125 0.01547812 0.01587500 0.01627187 0.01666875 0.01706563 0.01746250 0.01785938 0.01825625 0.01865312 0.01905000 0.01944687 0.01984375 0.02024062 0.02063750 0.02103437 0.02143125 0.02182813 0.02222500 0.02262187 0.02301875 0.02341562 0.02381250 0.02420937 0.02460625 0.02500312 0.02540000 0.00000000 0.00039687 0.00079375 0.00119062 0.00158750 0.00198438 0.00238125 0.00277812 0.00317500 0.00357187 0.00396875 0.00436562 0.00476250 0.00515937 0.00555625 0.00595313 0.00635000 0.00674687 0.00714375 0.00754062 0.00793750 0.00833437 0.00873125 0.00912812 0.00952500 0.00992188 0.01031875 0.01071562 0.01111250 0.01150937 0.01190625 0.01230312 0.01270000 0.01309687 0.01349375 0.01389063 0.01428750 0.01468437 0.01508125 0.01547812 0.01587500 0.01627187 0.01666875 0.01706563 0.01746250 0.01785938 0.01825625 0.01865312 0.01905000 0.01944687 0.01984375 0.02024062 0.02063750 0.02103437 0.02143125 0.02182813 0.02222500 0.02262187 0.02301875 0.02341562 0.02381250 0.02420937 0.02460625 0.02500312 0.02540000 0.00000000 0.00039687 0.00079375 0.00119062 0.00158750 0.00198438 0.00238125 0.00277812 0.00317500 0.00357187 0.00396875 0.00436562 0.00476250 0.00515937 0.00555625 0.00595313 0.00635000 0.00674687 0.00714375 0.00754062 0.00793750 0.00833437 0.00873125 0.00912812 0.00952500 0.00992188 0.01031875 0.01071562 0.01111250 0.01150937 0.01190625 0.01230312 0.01270000 0.01309687 0.01349375 0.01389063 0.01428750 0.01468437 0.01508125 0.01547812 0.01587500 0.01627187 0.01666875 0.01706563 0.01746250 0.01785938 0.01825625 0.01865312 0.01905000 0.01944687 0.01984375 0.02024062 0.02063750 0.02103437 0.02143125 0.02182813 0.02222500 0.02262187 0.02301875 0.02341562 0.02381250 0.02420937 0.02460625 0.02500312 0.02540000 0.00000000 0.00039687 0.00079375 0.00119062 0.00158750 0.00198438 0.00238125 0.00277812 0.00317500 0.00357187 0.00396875 0.00436562 0.00476250 0.00515937 0.00555625 0.00595313 0.00635000 0.00674687 0.00714375 0.00754062 0.00793750 0.00833437 0.00873125 0.00912812 0.00952500 0.00992188 0.01031875 0.01071562 0.01111250 0.01150937 0.01190625 0.01230312 0.01270000 0.01309687 0.01349375 0.01389063 0.01428750 0.01468437 0.01508125 0.01547812 0.01587500 0.01627187 0.01666875 0.01706563 0.01746250 0.01785938 0.01825625 0.01865312 0.01905000 0.01944687 0.01984375 0.02024062 0.02063750 0.02103437 0.02143125 0.02182813 0.02222500 0.02262187 0.02301875 0.02341562 0.02381250 0.02420937 0.02460625 0.02500312 0.02540000 0.00000000 0.00039687 0.00079375 0.00119062 0.00158750 0.00198438 0.00238125 0.00277812 0.00317500 0.00357187 0.00396875 0.00436562 0.00476250 0.00515937 0.00555625 0.00595313 0.00635000 0.00674687 0.00714375 0.00754062 0.00793750 0.00833437 0.00873125 0.00912812 0.00952500 0.00992188 0.01031875 0.01071562 0.01111250 0.01150937 0.01190625 0.01230312 0.01270000 0.01309687 0.01349375 0.01389063 0.01428750 0.01468437 0.01508125 0.01547812 0.01587500 0.01627187 0.01666875 0.01706563 0.01746250 0.01785938 0.01825625 0.01865312 0.01905000 0.01944687 0.01984375 0.02024062 0.02063750 0.02103437 0.02143125 0.02182813 0.02222500 0.02262187 0.02301875 0.02341562 0.02381250 0.02420937 0.02460625 0.02500312 0.02540000 0.00000000 0.00039687 0.00079375 0.00119062 0.00158750 0.00198438 0.00238125 0.00277812 0.00317500 0.00357187 0.00396875 0.00436562 0.00476250 0.00515937 0.00555625 0.00595313 0.00635000 0.00674687 0.00714375 0.00754062 0.00793750 0.00833437 0.00873125 0.00912812 0.00952500 0.00992188 0.01031875 0.01071562 0.01111250 0.01150937 0.01190625 0.01230312 0.01270000 0.01309687 0.01349375 0.01389063 0.01428750 0.01468437 0.01508125 0.01547812 0.01587500 0.01627187 0.01666875 0.01706563 0.01746250 0.01785938 0.01825625 0.01865312 0.01905000 0.01944687 0.01984375 0.02024062 0.02063750 0.02103437 0.02143125 0.02182813 0.02222500 0.02262187 0.02301875 0.02341562 0.02381250 0.02420937 0.02460625 0.02500312 0.02540000 0.00000000 0.00039687 0.00079375 0.00119062 0.00158750 0.00198438 0.00238125 0.00277812 0.00317500 0.00357187 0.00396875 0.00436562 0.00476250 0.00515937 0.00555625 0.00595313 0.00635000 0.00674687 0.00714375 0.00754062 0.00793750 0.00833437 0.00873125 0.00912812 0.00952500 0.00992188 0.01031875 0.01071562 0.01111250 0.01150937 0.01190625 0.01230312 0.01270000 0.01309687 0.01349375 0.01389063 0.01428750 0.01468437 0.01508125 0.01547812 0.01587500 0.01627187 0.01666875 0.01706563 0.01746250 0.01785938 0.01825625 0.01865312 0.01905000 0.01944687 0.01984375 0.02024062 0.02063750 0.02103437 0.02143125 0.02182813 0.02222500 0.02262187 0.02301875 0.02341562 0.02381250 0.02420937 0.02460625 0.02500312 0.02540000 0.00000000 0.00039687 0.00079375 0.00119062 0.00158750 0.00198438 0.00238125 0.00277812 0.00317500 0.00357187 0.00396875 0.00436562 0.00476250 0.00515937 0.00555625 0.00595313 0.00635000 0.00674687 0.00714375 0.00754062 0.00793750 0.00833437 0.00873125 0.00912812 0.00952500 0.00992188 0.01031875 0.01071562 0.01111250 0.01150937 0.01190625 0.01230312 0.01270000 0.01309687 0.01349375 0.01389063 0.01428750 0.01468437 0.01508125 0.01547812 0.01587500 0.01627187 0.01666875 0.01706563 0.01746250 0.01785938 0.01825625 0.01865312 0.01905000 0.01944687 0.01984375 0.02024062 0.02063750 0.02103437 0.02143125 0.02182813 0.02222500 0.02262187 0.02301875 0.02341562 0.02381250 0.02420937 0.02460625 0.02500312 0.02540000 0.00000000 0.00039687 0.00079375 0.00119062 0.00158750 0.00198438 0.00238125 0.00277812 0.00317500 0.00357187 0.00396875 0.00436562 0.00476250 0.00515937 0.00555625 0.00595313 0.00635000 0.00674687 0.00714375 0.00754062 0.00793750 0.00833437 0.00873125 0.00912812 0.00952500 0.00992188 0.01031875 0.01071562 0.01111250 0.01150937 0.01190625 0.01230312 0.01270000 0.01309687 0.01349375 0.01389063 0.01428750 0.01468437 0.01508125 0.01547812 0.01587500 0.01627187 0.01666875 0.01706563 0.01746250 0.01785938 0.01825625 0.01865312 0.01905000 0.01944687 0.01984375 0.02024062 0.02063750 0.02103437 0.02143125 0.02182813 0.02222500 0.02262187 0.02301875 0.02341562 0.02381250 0.02420937 0.02460625 0.02500312 0.02540000 0.00000000 0.00039687 0.00079375 0.00119062 0.00158750 0.00198438 0.00238125 0.00277812 0.00317500 0.00357187 0.00396875 0.00436562 0.00476250 0.00515937 0.00555625 0.00595313 0.00635000 0.00674687 0.00714375 0.00754062 0.00793750 0.00833437 0.00873125 0.00912812 0.00952500 0.00992188 0.01031875 0.01071562 0.01111250 0.01150937 0.01190625 0.01230312 0.01270000 0.01309687 0.01349375 0.01389063 0.01428750 0.01468437 0.01508125 0.01547812 0.01587500 0.01627187 0.01666875 0.01706563 0.01746250 0.01785938 0.01825625 0.01865312 0.01905000 0.01944687 0.01984375 0.02024062 0.02063750 0.02103437 0.02143125 0.02182813 0.02222500 0.02262187 0.02301875 0.02341562 0.02381250 0.02420937 0.02460625 0.02500312 0.02540000 0.00000000 0.00039687 0.00079375 0.00119062 0.00158750 0.00198438 0.00238125 0.00277812 0.00317500 0.00357187 0.00396875 0.00436562 0.00476250 0.00515937 0.00555625 0.00595313 0.00635000 0.00674687 0.00714375 0.00754062 0.00793750 0.00833437 0.00873125 0.00912812 0.00952500 0.00992188 0.01031875 0.01071562 0.01111250 0.01150937 0.01190625 0.01230312 0.01270000 0.01309687 0.01349375 0.01389063 0.01428750 0.01468437 0.01508125 0.01547812 0.01587500 0.01627187 0.01666875 0.01706563 0.01746250 0.01785938 0.01825625 0.01865312 0.01905000 0.01944687 0.01984375 0.02024062 0.02063750 0.02103437 0.02143125 0.02182813 0.02222500 0.02262187 0.02301875 0.02341562 0.02381250 0.02420937 0.02460625 0.02500312 0.02540000 0.00000000 0.00039687 0.00079375 0.00119062 0.00158750 0.00198438 0.00238125 0.00277812 0.00317500 0.00357187 0.00396875 0.00436562 0.00476250 0.00515937 0.00555625 0.00595313 0.00635000 0.00674687 0.00714375 0.00754062 0.00793750 0.00833437 0.00873125 0.00912812 0.00952500 0.00992188 0.01031875 0.01071562 0.01111250 0.01150937 0.01190625 0.01230312 0.01270000 0.01309687 0.01349375 0.01389063 0.01428750 0.01468437 0.01508125 0.01547812 0.01587500 0.01627187 0.01666875 0.01706563 0.01746250 0.01785938 0.01825625 0.01865312 0.01905000 0.01944687 0.01984375 0.02024062 0.02063750 0.02103437 0.02143125 0.02182813 0.02222500 0.02262187 0.02301875 0.02341562 0.02381250 0.02420937 0.02460625 0.02500312 0.02540000 0.00000000 0.00039687 0.00079375 0.00119062 0.00158750 0.00198438 0.00238125 0.00277812 0.00317500 0.00357187 0.00396875 0.00436562 0.00476250 0.00515937 0.00555625 0.00595313 0.00635000 0.00674687 0.00714375 0.00754062 0.00793750 0.00833437 0.00873125 0.00912812 0.00952500 0.00992188 0.01031875 0.01071562 0.01111250 0.01150937 0.01190625 0.01230312 0.01270000 0.01309687 0.01349375 0.01389063 0.01428750 0.01468437 0.01508125 0.01547812 0.01587500 0.01627187 0.01666875 0.01706563 0.01746250 0.01785938 0.01825625 0.01865312 0.01905000 0.01944687 0.01984375 0.02024062 0.02063750 0.02103437 0.02143125 0.02182813 0.02222500 0.02262187 0.02301875 0.02341562 0.02381250 0.02420937 0.02460625 0.02500312 0.02540000 0.00000000 0.00039687 0.00079375 0.00119062 0.00158750 0.00198438 0.00238125 0.00277812 0.00317500 0.00357187 0.00396875 0.00436562 0.00476250 0.00515937 0.00555625 0.00595313 0.00635000 0.00674687 0.00714375 0.00754062 0.00793750 0.00833437 0.00873125 0.00912812 0.00952500 0.00992188 0.01031875 0.01071562 0.01111250 0.01150937 0.01190625 0.01230312 0.01270000 0.01309687 0.01349375 0.01389063 0.01428750 0.01468437 0.01508125 0.01547812 0.01587500 0.01627187 0.01666875 0.01706563 0.01746250 0.01785938 0.01825625 0.01865312 0.01905000 0.01944687 0.01984375 0.02024062 0.02063750 0.02103437 0.02143125 0.02182813 0.02222500 0.02262187 0.02301875 0.02341562 0.02381250 0.02420937 0.02460625 0.02500312 0.02540000 0.00000000 0.00039687 0.00079375 0.00119062 0.00158750 0.00198438 0.00238125 0.00277812 0.00317500 0.00357187 0.00396875 0.00436562 0.00476250 0.00515937 0.00555625 0.00595313 0.00635000 0.00674687 0.00714375 0.00754062 0.00793750 0.00833437 0.00873125 0.00912812 0.00952500 0.00992188 0.01031875 0.01071562 0.01111250 0.01150937 0.01190625 0.01230312 0.01270000 0.01309687 0.01349375 0.01389063 0.01428750 0.01468437 0.01508125 0.01547812 0.01587500 0.01627187 0.01666875 0.01706563 0.01746250 0.01785938 0.01825625 0.01865312 0.01905000 0.01944687 0.01984375 0.02024062 0.02063750 0.02103437 0.02143125 0.02182813 0.02222500 0.02262187 0.02301875 0.02341562 0.02381250 0.02420937 0.02460625 0.02500312 0.02540000 0.00000000 0.00039687 0.00079375 0.00119062 0.00158750 0.00198438 0.00238125 0.00277812 0.00317500 0.00357187 0.00396875 0.00436562 0.00476250 0.00515937 0.00555625 0.00595313 0.00635000 0.00674687 0.00714375 0.00754062 0.00793750 0.00833437 0.00873125 0.00912812 0.00952500 0.00992188 0.01031875 0.01071562 0.01111250 0.01150937 0.01190625 0.01230312 0.01270000 0.01309687 0.01349375 0.01389063 0.01428750 0.01468437 0.01508125 0.01547812 0.01587500 0.01627187 0.01666875 0.01706563 0.01746250 0.01785938 0.01825625 0.01865312 0.01905000 0.01944687 0.01984375 0.02024062 0.02063750 0.02103437 0.02143125 0.02182813 0.02222500 0.02262187 0.02301875 0.02341562 0.02381250 0.02420937 0.02460625 0.02500312 0.02540000 0.00000000 0.00039687 0.00079375 0.00119062 0.00158750 0.00198438 0.00238125 0.00277812 0.00317500 0.00357187 0.00396875 0.00436562 0.00476250 0.00515937 0.00555625 0.00595313 0.00635000 0.00674687 0.00714375 0.00754062 0.00793750 0.00833437 0.00873125 0.00912812 0.00952500 0.00992188 0.01031875 0.01071562 0.01111250 0.01150937 0.01190625 0.01230312 0.01270000 0.01309687 0.01349375 0.01389063 0.01428750 0.01468437 0.01508125 0.01547812 0.01587500 0.01627187 0.01666875 0.01706563 0.01746250 0.01785938 0.01825625 0.01865312 0.01905000 0.01944687 0.01984375 0.02024062 0.02063750 0.02103437 0.02143125 0.02182813 0.02222500 0.02262187 0.02301875 0.02341562 0.02381250 0.02420937 0.02460625 0.02500312 0.02540000 0.00000000 0.00039687 0.00079375 0.00119062 0.00158750 0.00198438 0.00238125 0.00277812 0.00317500 0.00357187 0.00396875 0.00436562 0.00476250 0.00515937 0.00555625 0.00595313 0.00635000 0.00674687 0.00714375 0.00754062 0.00793750 0.00833437 0.00873125 0.00912812 0.00952500 0.00992188 0.01031875 0.01071562 0.01111250 0.01150937 0.01190625 0.01230312 0.01270000 0.01309687 0.01349375 0.01389063 0.01428750 0.01468437 0.01508125 0.01547812 0.01587500 0.01627187 0.01666875 0.01706563 0.01746250 0.01785938 0.01825625 0.0186