TITLE = "vncfd field"
VARIABLES = "X", "Y", "rho", "u", "v", "p", "Mach", "T"
ZONE T="1", I=101, J=101, DATAPACKING=BLOCK, VARLOCATION=([3,4,5,6,7,8]=CELLCENTERED)
0.05000000 0.04990134 0.04960574 0.04911436 0.04842916 0.04755283 0.04648882 0.04524135 0.04381533 0.04221640 0.04045085 0.03852566 0.03644843 0.03422736 0.03187120 0.02938926 0.02679134 0.02408768 0.02128896 0.01840623 0.01545085 0.01243449 0.00936907 0.00626666 0.00313953 -0.00000000 -0.00313953 -0.00626666 -0.00936907 -0.01243449 -0.01545085 -0.01840623 -0.02128896 -0.02408768 -0.02679134 -0.02938926 -0.03187120 -0.03422736 -0.03644843 -0.03852566 -0.04045085 -0.04221640 -0.04381533 -0.04524135 -0.04648882 -0.04755283 -0.04842916 -0.04911436 -0.04960574 -0.04990134 -0.05000000 -0.04990134 -0.04960574 -0.04911436 -0.04842916 -0.04755283 -0.04648882 -0.04524135 -0.04381533 -0.04221640 -0.04045085 -0.03852566 -0.03644843 -0.03422736 -0.03187120 -0.02938926 -0.02679134 -0.02408768 -0.02128896 -0.01840623 -0.01545085 -0.01243449 -0.00936907 -0.00626666 -0.00313953 -0.00000000 0.00313953 0.00626666 0.00936907 0.01243449 0.01545085 0.01840623 0.02128896 0.02408768 0.02679134 0.02938926 0.03187120 0.03422736 0.03644843 0.03852566 0.04045085 0.04221640 0.04381533 0.04524135 0.04648882 0.04755283 0.04842916 0.04911436 0.04960574 0.04990134 0.05000000 0.05125000 0.05114887 0.05084588 0.05034222 0.04963989 0.04874165 0.04765104 0.04637239 0.04491072 0.04327181 0.04146212 0.03948880 0.03735964 0.03508304 0.03266798 0.03012399 0.02746112 0.02468988 0.02182119 0.01886638 0.01583712 0.01274536 0.00960329 0.00642333 0.00321801 -0.00000000 -0.00321801 -0.00642333 -0.00960329 -0.01274536 -0.01583712 -0.01886638 -0.02182119 -0.02468988 -0.02746112 -0.03012399 -0.03266798 -0.03508304 -0.03735964 -0.03948880 -0.04146212 -0.04327181 -0.04491072 -0.04637239 -0.04765104 -0.04874165 -0.04963989 -0.05034222 -0.05084588 -0.05114887 -0.05125000 -0.05114887 -0.05084588 -0.05034222 -0.04963989 -0.04874165 -0.04765104 -0.04637239 -0.04491072 -0.04327181 -0.04146212 -0.03948880 -0.03735964 -0.03508304 -0.03266798 -0.03012399 -0.02746112 -0.02468988 -0.02182119 -0.01886638 -0.01583712 -0.01274536 -0.00960329 -0.00642333 -0.00321801 -0.00000000 0.00321801 0.00642333 0.00960329 0.01274536 0.01583712 0.01886638 0.02182119 0.02468988 0.02746112 0.03012399 0.03266798 0.03508304 0.03735964 0.03948880 0.04146212 0.04327181 0.04491072 0.04637239 0.04765104 0.04874165 0.04963989 0.05034222 0.05084588 0.05114887 0.05125000 0.05262500 0.05252116 0.05221004 0.05169287 0.05097169 0.05004935 0.04892949 0.04761652 0.04611564 0.04443276 0.04257452 0.04054826 0.03836197 0.03602429 0.03354444 0.03093220 0.02819789 0.02535229 0.02240664 0.01937255 0.01626202 0.01308731 0.00986094 0.00659566 0.00330435 -0.00000000 -0.00330435 -0.00659566 -0.00986094 -0.01308731 -0.01626202 -0.01937255 -0.02240664 -0.02535229 -0.02819789 -0.03093220 -0.03354444 -0.03602429 -0.03836197 -0.04054826 -0.04257452 -0.04443276 -0.04611564 -0.04761652 -0.04892949 -0.05004935 -0.05097169 -0.05169287 -0.05221004 -0.05252116 -0.05262500 -0.05252116 -0.05221004 -0.05169287 -0.05097169 -0.05004935 -0.04892949 -0.04761652 -0.04611564 -0.04443276 -0.04257452 -0.04054826 -0.03836197 -0.03602429 -0.03354444 -0.03093220 -0.02819789 -0.02535229 -0.02240664 -0.01937255 -0.01626202 -0.01308731 -0.00986094 -0.00659566 -0.00330435 -0.00000000 0.00330435 0.00659566 0.00986094 0.01308731 0.01626202 0.01937255 0.02240664 0.02535229 0.02819789 0.03093220 0.03354444 0.03602429 0.03836197 0.04054826 0.04257452 0.04443276 0.04611564 0.04761652 0.04892949 0.05004935 0.05097169 0.05169287 0.05221004 0.05252116 0.05262500 0.05413750 0.05403067 0.05371061 0.05317858 0.05243667 0.05148782 0.05033577 0.04898507 0.04744105 0.04570980 0.04379816 0.04171366 0.03946454 0.03705967 0.03450854 0.03182122 0.02900832 0.02608094 0.02305063 0.01992934 0.01672941 0.01346345 0.01014436 0.00678523 0.00339932 -0.00000000 -0.00339932 -0.00678523 -0.01014436 -0.01346345 -0.01672941 -0.01992934 -0.02305063 -0.02608094 -0.02900832 -0.03182122 -0.03450854 -0.03705967 -0.03946454 -0.04171366 -0.04379816 -0.04570980 -0.04744105 -0.04898507 -0.05033577 -0.05148782 -0.05243667 -0.05317858 -0.05371061 -0.05403067 -0.05413750 -0.05403067 -0.05371061 -0.05317858 -0.05243667 -0.05148782 -0.05033577 -0.04898507 -0.04744105 -0.04570980 -0.04379816 -0.04171366 -0.03946454 -0.03705967 -0.03450854 -0.03182122 -0.02900832 -0.02608094 -0.02305063 -0.01992934 -0.01672941 -0.01346345 -0.01014436 -0.00678523 -0.00339932 -0.00000000 0.00339932 0.00678523 0.01014436 0.01346345 0.01672941 0.01992934 0.02305063 0.02608094 0.02900832 0.03182122 0.03450854 0.03705967 0.03946454 0.04171366 0.04379816 0.04570980 0.04744105 0.04898507 0.05033577 0.05148782 0.05243667 0.05317858 0.05371061 0.05403067 0.05413750 0.05580125 0.05569114 0.05536124 0.05481286 0.05404815 0.05307014 0.05188269 0.05049048 0.04889901 0.04711455 0.04514416 0.04299560 0.04067736 0.03819858 0.03556906 0.03279915 0.02989980 0.02688246 0.02375902 0.02054181 0.01724353 0.01387721 0.01045611 0.00699375 0.00350379 -0.00000000 -0.00350379 -0.00699375 -0.01045611 -0.01387721 -0.01724353 -0.02054181 -0.02375902 -0.02688246 -0.02989980 -0.03279915 -0.03556906 -0.03819858 -0.04067736 -0.04299560 -0.04514416 -0.04711455 -0.04889901 -0.05049048 -0.05188269 -0.05307014 -0.05404815 -0.05481286 -0.05536124 -0.05569114 -0.05580125 -0.05569114 -0.05536124 -0.05481286 -0.05404815 -0.05307014 -0.05188269 -0.05049048 -0.04889901 -0.04711455 -0.04514416 -0.04299560 -0.04067736 -0.03819858 -0.03556906 -0.03279915 -0.02989980 -0.02688246 -0.02375902 -0.02054181 -0.01724353 -0.01387721 -0.01045611 -0.00699375 -0.00350379 -0.00000000 0.00350379 0.00699375 0.01045611 0.01387721 0.01724353 0.02054181 0.02375902 0.02688246 0.02989980 0.03279915 0.03556906 0.03819858 0.04067736 0.04299560 0.04514416 0.04711455 0.04889901 0.05049048 0.05188269 0.05307014 0.05404815 0.05481286 0.05536124 0.05569114 0.05580125 0.05763138 0.05751765 0.05717693 0.05661056 0.05582078 0.05481069 0.05358430 0.05214643 0.05050276 0.04865978 0.04662476 0.04440574 0.04201146 0.03945139 0.03673562 0.03387487 0.03088043 0.02776413 0.02453825 0.02121552 0.01780907 0.01433234 0.01079904 0.00722313 0.00361870 -0.00000000 -0.00361870 -0.00722313 -0.01079904 -0.01433234 -0.01780907 -0.02121552 -0.02453825 -0.02776413 -0.03088043 -0.03387487 -0.03673562 -0.03945139 -0.04201146 -0.04440574 -0.04662476 -0.04865978 -0.05050276 -0.05214643 -0.05358430 -0.05481069 -0.05582078 -0.05661056 -0.05717693 -0.05751765 -0.05763138 -0.05751765 -0.05717693 -0.05661056 -0.05582078 -0.05481069 -0.05358430 -0.05214643 -0.05050276 -0.04865978 -0.04662476 -0.04440574 -0.04201146 -0.03945139 -0.03673562 -0.03387487 -0.03088043 -0.02776413 -0.02453825 -0.02121552 -0.01780907 -0.01433234 -0.01079904 -0.00722313 -0.00361870 -0.00000000 0.00361870 0.00722313 0.01079904 0.01433234 0.01780907 0.02121552 0.02453825 0.02776413 0.03088043 0.03387487 0.03673562 0.03945139 0.04201146 0.04440574 0.04662476 0.04865978 0.05050276 0.05214643 0.05358430 0.05481069 0.05582078 0.05661056 0.05717693 0.05751765 0.05763138 0.05964451 0.05952682 0.05917420 0.05858804 0.05777067 0.05672530 0.05545607 0.05396797 0.05226688 0.05035953 0.04825342 0.04595689 0.04347898 0.04082948 0.03801884 0.03505816 0.03195913 0.02873396 0.02539540 0.02195661 0.01843117 0.01483299 0.01117627 0.00747544 0.00374511 -0.00000000 -0.00374511 -0.00747544 -0.01117627 -0.01483299 -0.01843117 -0.02195661 -0.02539540 -0.02873396 -0.03195913 -0.03505816 -0.03801884 -0.04082948 -0.04347898 -0.04595689 -0.04825342 -0.05035953 -0.05226688 -0.05396797 -0.05545607 -0.05672530 -0.05777067 -0.05858804 -0.05917420 -0.05952682 -0.05964451 -0.05952682 -0.05917420 -0.05858804 -0.05777067 -0.05672530 -0.05545607 -0.05396797 -0.05226688 -0.05035953 -0.04825342 -0.04595689 -0.04347898 -0.04082948 -0.03801884 -0.03505816 -0.03195913 -0.02873396 -0.02539540 -0.02195661 -0.01843117 -0.01483299 -0.01117627 -0.00747544 -0.00374511 -0.00000000 0.00374511 0.00747544 0.01117627 0.01483299 0.01843117 0.02195661 0.02539540 0.02873396 0.03195913 0.03505816 0.03801884 0.04082948 0.04347898 0.04595689 0.04825342 0.05035953 0.05226688 0.05396797 0.05545607 0.05672530 0.05777067 0.05858804 0.05917420 0.05952682 0.05964451 0.06185896 0.06173690 0.06137119 0.06076327 0.05991555 0.05883137 0.05751501 0.05597166 0.05420742 0.05222925 0.05004495 0.04766315 0.04509324 0.04234537 0.03943039 0.03635979 0.03314569 0.02980078 0.02633827 0.02277180 0.01911547 0.01538370 0.01159121 0.00775298 0.00388416 -0.00000000 -0.00388416 -0.00775298 -0.01159121 -0.01538370 -0.01911547 -0.02277180 -0.02633827 -0.02980078 -0.03314569 -0.03635979 -0.03943039 -0.04234537 -0.04509324 -0.04766315 -0.05004495 -0.05222925 -0.05420742 -0.05597166 -0.05751501 -0.05883137 -0.05991555 -0.06076327 -0.06137119 -0.06173690 -0.06185896 -0.06173690 -0.06137119 -0.06076327 -0.05991555 -0.05883137 -0.05751501 -0.05597166 -0.05420742 -0.05222925 -0.05004495 -0.04766315 -0.04509324 -0.04234537 -0.03943039 -0.03635979 -0.03314569 -0.02980078 -0.02633827 -0.02277180 -0.01911547 -0.01538370 -0.01159121 -0.00775298 -0.00388416 -0.00000000 0.00388416 0.00775298 0.01159121 0.01538370 0.01911547 0.02277180 0.02633827 0.02980078 0.03314569 0.03635979 0.03943039 0.04234537 0.04509324 0.04766315 0.05004495 0.05222925 0.05420742 0.05597166 0.05751501 0.05883137 0.05991555 0.06076327 0.06137119 0.06173690 0.06185896 0.06429486 0.06416799 0.06378788 0.06315602 0.06227492 0.06114805 0.05977985 0.05817573 0.05634202 0.05428595 0.05201563 0.04954004 0.04686894 0.04401286 0.04098309 0.03779157 0.03445091 0.03097429 0.02737542 0.02366852 0.01986820 0.01598948 0.01204766 0.00805828 0.00403711 -0.00000000 -0.00403711 -0.00805828 -0.01204766 -0.01598948 -0.01986820 -0.02366852 -0.02737542 -0.03097429 -0.03445091 -0.03779157 -0.04098309 -0.04401286 -0.04686894 -0.04954004 -0.05201563 -0.05428595 -0.05634202 -0.05817573 -0.05977985 -0.06114805 -0.06227492 -0.06315602 -0.06378788 -0.06416799 -0.06429486 -0.06416799 -0.06378788 -0.06315602 -0.06227492 -0.06114805 -0.05977985 -0.05817573 -0.05634202 -0.05428595 -0.05201563 -0.04954004 -0.04686894 -0.04401286 -0.04098309 -0.03779157 -0.03445091 -0.03097429 -0.02737542 -0.02366852 -0.01986820 -0.01598948 -0.01204766 -0.00805828 -0.00403711 -0.00000000 0.00403711 0.00805828 0.01204766 0.01598948 0.01986820 0.02366852 0.02737542 0.03097429 0.03445091 0.03779157 0.04098309 0.04401286 0.04686894 0.04954004 0.05201563 0.05428595 0.05634202 0.05817573 0.05977985 0.06114805 0.06227492 0.06315602 0.06378788 0.06416799 0.06429486 0.06697435 0.06684219 0.06644623 0.06578805 0.06487022 0.06369639 0.06227117 0.06060020 0.05869007 0.05654831 0.05418338 0.05160462 0.04882220 0.04584709 0.04269105 0.03936653 0.03588665 0.03226514 0.02851629 0.02465490 0.02069621 0.01665584 0.01254974 0.00839411 0.00420535 -0.00000000 -0.00420535 -0.00839411 -0.01254974 -0.01665584 -0.02069621 -0.02465490 -0.02851629 -0.03226514 -0.03588665 -0.03936653 -0.04269105 -0.04584709 -0.04882220 -0.05160462 -0.05418338 -0.05654831 -0.05869007 -0.06060020 -0.06227117 -0.06369639 -0.06487022 -0.06578805 -0.06644623 -0.06684219 -0.06697435 -0.06684219 -0.06644623 -0.06578805 -0.06487022 -0.06369639 -0.06227117 -0.06060020 -0.05869007 -0.05654831 -0.05418338 -0.05160462 -0.04882220 -0.04584709 -0.04269105 -0.03936653 -0.03588665 -0.03226514 -0.02851629 -0.02465490 -0.02069621 -0.01665584 -0.01254974 -0.00839411 -0.00420535 -0.00000000 0.00420535 0.00839411 0.01254974 0.01665584 0.02069621 0.02465490 0.02851629 0.03226514 0.03588665 0.03936653 0.04269105 0.04584709 0.04882220 0.05160462 0.05418338 0.05654831 0.05869007 0.06060020 0.06227117 0.06369639 0.06487022 0.06578805 0.06644623 0.06684219 0.06697435 0.06992178 0.06978381 0.06937043 0.06868327 0.06772506 0.06649957 0.06501163 0.06326712 0.06127292 0.05903691 0.05656791 0.05387566 0.05097078 0.04786475 0.04456982 0.04109899 0.03746596 0.03368507 0.02977125 0.02573992 0.02160702 0.01738884 0.01310204 0.00876352 0.00439042 -0.00000000 -0.00439042 -0.00876352 -0.01310204 -0.01738884 -0.02160702 -0.02573992 -0.02977125 -0.03368507 -0.03746596 -0.04109899 -0.04456982 -0.04786475 -0.05097078 -0.05387566 -0.05656791 -0.05903691 -0.06127292 -0.06326712 -0.06501163 -0.06649957 -0.06772506 -0.06868327 -0.06937043 -0.06978381 -0.06992178 -0.06978381 -0.06937043 -0.06868327 -0.06772506 -0.06649957 -0.06501163 -0.06326712 -0.06127292 -0.05903691 -0.05656791 -0.05387566 -0.05097078 -0.04786475 -0.04456982 -0.04109899 -0.03746596 -0.03368507 -0.02977125 -0.02573992 -0.02160702 -0.01738884 -0.01310204 -0.00876352 -0.00439042 -0.00000000 0.00439042 0.00876352 0.01310204 0.01738884 0.02160702 0.02573992 0.02977125 0.03368507 0.03746596 0.04109899 0.04456982 0.04786475 0.05097078 0.05387566 0.05656791 0.05903691 0.06127292 0.06326712 0.06501163 0.06649957 0.06772506 0.06868327 0.06937043 0.06978381 0.06992178 0.07316396 0.07301959 0.07258704 0.07186802 0.07086538 0.06958306 0.06802613 0.06620073 0.06411407 0.06177437 0.05919089 0.05637380 0.05333423 0.05008418 0.04663646 0.04300470 0.03920321 0.03524701 0.03115170 0.02693345 0.02260891 0.01819514 0.01370956 0.00916988 0.00459400 -0.00000000 -0.00459400 -0.00916988 -0.01370956 -0.01819514 -0.02260891 -0.02693345 -0.03115170 -0.03524701 -0.03920321 -0.04300470 -0.04663646 -0.05008418 -0.05333423 -0.05637380 -0.05919089 -0.06177437 -0.06411407 -0.06620073 -0.06802613 -0.06958306 -0.07086538 -0.07186802 -0.07258704 -0.07301959 -0.07316396 -0.07301959 -0.07258704 -0.07186802 -0.07086538 -0.06958306 -0.06802613 -0.06620073 -0.06411407 -0.06177437 -0.05919089 -0.05637380 -0.05333423 -0.05008418 -0.04663646 -0.04300470 -0.03920321 -0.03524701 -0.03115170 -0.02693345 -0.02260891 -0.01819514 -0.01370956 -0.00916988 -0.00459400 -0.00000000 0.00459400 0.00916988 0.01370956 0.01819514 0.02260891 0.02693345 0.03115170 0.03524701 0.03920321 0.04300470 0.04663646 0.05008418 0.05333423 0.05637380 0.05919089 0.06177437 0.06411407 0.06620073 0.06802613 0.06958306 0.07086538 0.07186802 0.07258704 0.07301959 0.07316396 0.07673035 0.07657894 0.07612531 0.07537125 0.07431973 0.07297490 0.07134208 0.06942770 0.06723932 0.06478558 0.06207616 0.05912175 0.05593402 0.05252554 0.04890977 0.04510097 0.04111418 0.03696513 0.03267020 0.02824633 0.02371098 0.01908206 0.01437783 0.00961686 0.00481794 -0.00000000 -0.00481794 -0.00961686 -0.01437783 -0.01908206 -0.02371098 -0.02824633 -0.03267020 -0.03696513 -0.04111418 -0.04510097 -0.04890977 -0.05252554 -0.05593402 -0.05912175 -0.06207616 -0.06478558 -0.06723932 -0.06942770 -0.07134208 -0.07297490 -0.07431973 -0.07537125 -0.07612531 -0.07657894 -0.07673035 -0.07657894 -0.07612531 -0.07537125 -0.07431973 -0.07297490 -0.07134208 -0.06942770 -0.06723932 -0.06478558 -0.06207616 -0.05912175 -0.05593402 -0.05252554 -0.04890977 -0.04510097 -0.04111418 -0.03696513 -0.03267020 -0.02824633 -0.02371098 -0.01908206 -0.01437783 -0.00961686 -0.00481794 -0.00000000 0.00481794 0.00961686 0.01437783 0.01908206 0.02371098 0.02824633 0.03267020 0.03696513 0.04111418 0.04510097 0.04890977 0.05252554 0.05593402 0.05912175 0.06207616 0.06478558 0.06723932 0.06942770 0.07134208 0.07297490 0.07431973 0.07537125 0.07612531 0.07657894 0.07673035 0.08065339 0.08049424 0.08001741 0.07922480 0.07811952 0.07670593 0.07498963 0.07297737 0.07067710 0.06809791 0.06524996 0.06214451 0.05879379 0.05521104 0.05141041 0.04740687 0.04321625 0.03885507 0.03434054 0.02969049 0.02492327 0.02005768 0.01511294 0.01010855 0.00506427 -0.00000000 -0.00506427 -0.01010855 -0.01511294 -0.02005768 -0.02492327 -0.02969049 -0.03434054 -0.03885507 -0.04321625 -0.04740687 -0.05141041 -0.05521104 -0.05879379 -0.06214451 -0.06524996 -0.06809791 -0.07067710 -0.07297737 -0.07498963 -0.07670593 -0.07811952 -0.07922480 -0.08001741 -0.08049424 -0.08065339 -0.08049424 -0.08001741 -0.07922480 -0.07811952 -0.07670593 -0.07498963 -0.07297737 -0.07067710 -0.06809791 -0.06524996 -0.06214451 -0.05879379 -0.05521104 -0.05141041 -0.04740687 -0.04321625 -0.03885507 -0.03434054 -0.02969049 -0.02492327 -0.02005768 -0.01511294 -0.01010855 -0.00506427 -0.00000000 0.00506427 0.01010855 0.01511294 0.02005768 0.02492327 0.02969049 0.03434054 0.03885507 0.04321625 0.04740687 0.05141041 0.05521104 0.05879379 0.06214451 0.06524996 0.06809791 0.07067710 0.07297737 0.07498963 0.07670593 0.07811952 0.07922480 0.08001741 0.08049424 0.08065339 0.08496873 0.08480106 0.08429873 0.08346370 0.08229928 0.08081006 0.07900193 0.07688200 0.07445866 0.07174147 0.06874115 0.06546953 0.06193954 0.05816510 0.05416111 0.04994337 0.04552852 0.04093400 0.03617793 0.03127908 0.02625678 0.02113086 0.01592155 0.01064941 0.00533523 -0.00000000 -0.00533523 -0.01064941 -0.01592155 -0.02113086 -0.02625678 -0.03127908 -0.03617793 -0.04093400 -0.04552852 -0.04994337 -0.05416111 -0.05816510 -0.06193954 -0.06546953 -0.06874115 -0.07174147 -0.07445866 -0.07688200 -0.07900193 -0.08081006 -0.08229928 -0.08346370 -0.08429873 -0.08480106 -0.08496873 -0.08480106 -0.08429873 -0.08346370 -0.08229928 -0.08081006 -0.07900193 -0.07688200 -0.07445866 -0.07174147 -0.06874115 -0.06546953 -0.06193954 -0.05816510 -0.05416111 -0.04994337 -0.04552852 -0.04093400 -0.03617793 -0.03127908 -0.02625678 -0.02113086 -0.01592155 -0.01064941 -0.00533523 -0.00000000 0.00533523 0.01064941 0.01592155 0.02113086 0.02625678 0.03127908 0.03617793 0.04093400 0.04552852 0.04994337 0.05416111 0.05816510 0.06193954 0.06546953 0.06874115 0.07174147 0.07445866 0.07688200 0.07900193 0.08081006 0.08229928 0.08346370 0.08429873 0.08480106 0.08496873 0.08971560 0.08953857 0.08900817 0.08812649 0.08689702 0.08532461 0.08341546 0.08117710 0.07861838 0.07574939 0.07258145 0.06912706 0.06539986 0.06141456 0.05718688 0.05273351 0.04807202 0.04322082 0.03819905 0.03302652 0.02772365 0.02231136 0.01681103 0.01124435 0.00563329 -0.00000000 -0.00563329 -0.01124435 -0.01681103 -0.02231136 -0.02772365 -0.03302652 -0.03819905 -0.04322082 -0.04807202 -0.05273351 -0.05718688 -0.06141456 -0.06539986 -0.06912706 -0.07258145 -0.07574939 -0.07861838 -0.08117710 -0.08341546 -0.08532461 -0.08689702 -0.08812649 -0.08900817 -0.08953857 -0.08971560 -0.08953857 -0.08900817 -0.08812649 -0.08689702 -0.08532461 -0.08341546 -0.08117710 -0.07861838 -0.07574939 -0.07258145 -0.06912706 -0.06539986 -0.06141456 -0.05718688 -0.05273351 -0.04807202 -0.04322082 -0.03819905 -0.03302652 -0.02772365 -0.02231136 -0.01681103 -0.01124435 -0.00563329 -0.00000000 0.00563329 0.01124435 0.01681103 0.02231136 0.02772365 0.03302652 0.03819905 0.04322082 0.04807202 0.05273351 0.05718688 0.06141456 0.06539986 0.06912706 0.07258145 0.07574939 0.07861838 0.08117710 0.08341546 0.08532461 0.08689702 0.08812649 0.08900817 0.08953857 0.08971560 0.09493716 0.09474983 0.09418855 0.09325556 0.09195454 0.09029061 0.08827034 0.08590171 0.08319407 0.08015810 0.07680578 0.07315034 0.06920621 0.06498896 0.06051522 0.05580266 0.05086988 0.04573633 0.04042228 0.03494870 0.02933720 0.02360991 0.01778945 0.01189878 0.00596115 -0.00000000 -0.00596115 -0.01189878 -0.01778945 -0.02360991 -0.02933720 -0.03494870 -0.04042228 -0.04573633 -0.05086988 -0.05580266 -0.06051522 -0.06498896 -0.06920621 -0.07315034 -0.07680578 -0.08015810 -0.08319407 -0.08590171 -0.08827034 -0.09029061 -0.09195454 -0.09325556 -0.09418855 -0.09474983 -0.09493716 -0.09474983 -0.09418855 -0.09325556 -0.09195454 -0.09029061 -0.08827034 -0.08590171 -0.08319407 -0.08015810 -0.07680578 -0.07315034 -0.06920621 -0.06498896 -0.06051522 -0.05580266 -0.05086988 -0.04573633 -0.04042228 -0.03494870 -0.02933720 -0.02360991 -0.01778945 -0.01189878 -0.00596115 -0.00000000 0.00596115 0.01189878 0.01778945 0.02360991 0.02933720 0.03494870 0.04042228 0.04573633 0.05086988 0.05580266 0.06051522 0.06498896 0.06920621 0.07315034 0.07680578 0.08015810 0.08319407 0.08590171 0.08827034 0.09029061 0.09195454 0.09325556 0.09418855 0.09474983 0.09493716 0.10068088 0.10048221 0.09988698 0.09889754 0.09751780 0.09575321 0.09361071 0.09109878 0.08822733 0.08500768 0.08145254 0.07757595 0.07339320 0.06892080 0.06417641 0.05917874 0.05394751 0.04850338 0.04286783 0.03706310 0.03111210 0.02503832 0.01886572 0.01261866 0.00632180 -0.00000000 -0.00632180 -0.01261866 -0.01886572 -0.02503832 -0.03111210 -0.03706310 -0.04286783 -0.04850338 -0.05394751 -0.05917874 -0.06417641 -0.06892080 -0.07339320 -0.07757595 -0.08145254 -0.08500768 -0.08822733 -0.09109878 -0.09361071 -0.09575321 -0.09751780 -0.09889754 -0.09988698 -0.10048221 -0.10068088 -0.10048221 -0.09988698 -0.09889754 -0.09751780 -0.09575321 -0.09361071 -0.09109878 -0.08822733 -0.08500768 -0.08145254 -0.07757595 -0.07339320 -0.06892080 -0.06417641 -0.05917874 -0.05394751 -0.04850338 -0.04286783 -0.03706310 -0.03111210 -0.02503832 -0.01886572 -0.01261866 -0.00632180 -0.00000000 0.00632180 0.01261866 0.01886572 0.02503832 0.03111210 0.03706310 0.04286783 0.04850338 0.05394751 0.05917874 0.06417641 0.06892080 0.07339320 0.07757595 0.08145254 0.08500768 0.08822733 0.09109878 0.09361071 0.09575321 0.09751780 0.09889754 0.09988698 0.10048221 0.10068088 0.10699897 0.10678783 0.10615525 0.10510372 0.10363740 0.10176206 0.09948512 0.09681556 0.09376391 0.09034222 0.08656398 0.08244412 0.07799889 0.07324583 0.06820371 0.06289241 0.05733291 0.05154715 0.04555794 0.03938895 0.03306450 0.02660956 0.02004961 0.01341053 0.00671852 -0.00000000 -0.00671852 -0.01341053 -0.02004961 -0.02660956 -0.03306450 -0.03938895 -0.04555794 -0.05154715 -0.05733291 -0.06289241 -0.06820371 -0.07324583 -0.07799889 -0.08244412 -0.08656398 -0.09034222 -0.09376391 -0.09681556 -0.09948512 -0.10176206 -0.10363740 -0.10510372 -0.10615525 -0.10678783 -0.10699897 -0.10678783 -0.10615525 -0.10510372 -0.10363740 -0.10176206 -0.09948512 -0.09681556 -0.09376391 -0.09034222 -0.08656398 -0.08244412 -0.07799889 -0.07324583 -0.06820371 -0.06289241 -0.05733291 -0.05154715 -0.04555794 -0.03938895 -0.03306450 -0.02660956 -0.02004961 -0.01341053 -0.00671852 -0.00000000 0.00671852 0.01341053 0.02004961 0.02660956 0.03306450 0.03938895 0.04555794 0.05154715 0.05733291 0.06289241 0.06820371 0.07324583 0.07799889 0.08244412 0.08656398 0.09034222 0.09376391 0.09681556 0.09948512 0.10176206 0.10363740 0.10510372 0.10615525 0.10678783 0.10699897 0.11394886 0.11372401 0.11305034 0.11193052 0.11036895 0.10837181 0.10594697 0.10310401 0.09985415 0.09621021 0.09218657 0.08779911 0.08306515 0.07800336 0.07263374 0.06697746 0.06105685 0.05489528 0.04851707 0.04194737 0.03521214 0.02833793 0.02135189 0.01428158 0.00715491 -0.00000000 -0.00715491 -0.01428158 -0.02135189 -0.02833793 -0.03521214 -0.04194737 -0.04851707 -0.05489528 -0.06105685 -0.06697746 -0.07263374 -0.07800336 -0.08306515 -0.08779911 -0.09218657 -0.09621021 -0.09985415 -0.10310401 -0.10594697 -0.10837181 -0.11036895 -0.11193052 -0.11305034 -0.11372401 -0.11394886 -0.11372401 -0.11305034 -0.11193052 -0.11036895 -0.10837181 -0.10594697 -0.10310401 -0.09985415 -0.09621021 -0.09218657 -0.08779911 -0.08306515 -0.07800336 -0.07263374 -0.06697746 -0.06105685 -0.05489528 -0.04851707 -0.04194737 -0.03521214 -0.02833793 -0.02135189 -0.01428158 -0.00715491 -0.00000000 0.00715491 0.01428158 0.02135189 0.02833793 0.03521214 0.04194737 0.04851707 0.05489528 0.06105685 0.06697746 0.07263374 0.07800336 0.08306515 0.08779911 0.09218657 0.09621021 0.09985415 0.10310401 0.10594697 0.10837181 0.11036895 0.11193052 0.11305034 0.11372401 0.11394886 0.12159375 0.12135381 0.12063495 0.11943999 0.11777366 0.11564253 0.11305501 0.11002131 0.10655341 0.10266500 0.09837141 0.09368959 0.08863803 0.08323665 0.07750677 0.07147101 0.06515319 0.05857824 0.05177210 0.04476164 0.03757453 0.03023914 0.02278440 0.01523974 0.00763493 -0.00000000 -0.00763493 -0.01523974 -0.02278440 -0.03023914 -0.03757453 -0.04476164 -0.05177210 -0.05857824 -0.06515319 -0.07147101 -0.07750677 -0.08323665 -0.08863803 -0.09368959 -0.09837141 -0.10266500 -0.10655341 -0.11002131 -0.11305501 -0.11564253 -0.11777366 -0.11943999 -0.12063495 -0.12135381 -0.12159375 -0.12135381 -0.12063495 -0.11943999 -0.11777366 -0.11564253 -0.11305501 -0.11002131 -0.10655341 -0.10266500 -0.09837141 -0.09368959 -0.08863803 -0.08323665 -0.07750677 -0.07147101 -0.06515319 -0.05857824 -0.05177210 -0.04476164 -0.03757453 -0.03023914 -0.02278440 -0.01523974 -0.00763493 -0.00000000 0.00763493 0.01523974 0.02278440 0.03023914 0.03757453 0.04476164 0.05177210 0.05857824 0.06515319 0.07147101 0.07750677 0.08323665 0.08863803 0.09368959 0.09837141 0.10266500 0.10655341 0.11002131 0.11305501 0.11564253 0.11777366 0.11943999 0.12063495 0.12135381 0.12159375 0.13000312 0.12974659 0.12897801 0.12770041 0.12591884 0.12364032 0.12087385 0.11763034 0.11392261 0.10976527 0.10517474 0.10016913 0.09476820 0.08899326 0.08286711 0.07641392 0.06965916 0.06262948 0.05535264 0.04785734 0.04017317 0.03233046 0.02436016 0.01629371 0.00816296 -0.00000000 -0.00816296 -0.01629371 -0.02436016 -0.03233046 -0.04017317 -0.04785734 -0.05535264 -0.06262948 -0.06965916 -0.07641392 -0.08286711 -0.08899326 -0.09476820 -0.10016913 -0.10517474 -0.10976527 -0.11392261 -0.11763034 -0.12087385 -0.12364032 -0.12591884 -0.12770041 -0.12897801 -0.12974659 -0.13000312 -0.12974659 -0.12897801 -0.12770041 -0.12591884 -0.12364032 -0.12087385 -0.11763034 -0.11392261 -0.10976527 -0.10517474 -0.10016913 -0.09476820 -0.08899326 -0.08286711 -0.07641392 -0.06965916 -0.06262948 -0.05535264 -0.04785734 -0.04017317 -0.03233046 -0.02436016 -0.01629371 -0.00816296 -0.00000000 0.00816296 0.01629371 0.02436016 0.03233046 0.04017317 0.04785734 0.05535264 0.06262948 0.06965916 0.07641392 0.08286711 0.08899326 0.09476820 0.10016913 0.10517474 0.10976527 0.11392261 0.11763034 0.12087385 0.12364032 0.12591884 0.12770041 0.12897801 0.12974659 0.13000312 0.13925344 0.13897865 0.13815538 0.13678688 0.13487853 0.13243789 0.12947457 0.12600028 0.12202872 0.11757557 0.11265840 0.10729662 0.10151139 0.09532554 0.08876348 0.08185112 0.07461572 0.06708585 0.05929123 0.05126261 0.04303168 0.03463092 0.02609349 0.01745308 0.00874380 -0.00000000 -0.00874380 -0.01745308 -0.02609349 -0.03463092 -0.04303168 -0.05126261 -0.05929123 -0.06708585 -0.07461572 -0.08185112 -0.08876348 -0.09532554 -0.10151139 -0.10729662 -0.11265840 -0.11757557 -0.12202872 -0.12600028 -0.12947457 -0.13243789 -0.13487853 -0.13678688 -0.13815538 -0.13897865 -0.13925344 -0.13897865 -0.13815538 -0.13678688 -0.13487853 -0.13243789 -0.12947457 -0.12600028 -0.12202872 -0.11757557 -0.11265840 -0.10729662 -0.10151139 -0.09532554 -0.08876348 -0.08185112 -0.07461572 -0.06708585 -0.05929123 -0.05126261 -0.04303168 -0.03463092 -0.02609349 -0.01745308 -0.00874380 -0.00000000 0.00874380 0.01745308 0.02609349 0.03463092 0.04303168 0.05126261 0.05929123 0.06708585 0.07461572 0.08185112 0.08876348 0.09532554 0.10151139 0.10729662 0.11265840 0.11757557 0.12202872 0.12600028 0.12947457 0.13243789 0.13487853 0.13678688 0.13815538 0.13897865 0.13925344 0.14942878 0.14913392 0.14825049 0.14678199 0.14473420 0.14211522 0.13893537 0.13520720 0.13094544 0.12616689 0.12089042 0.11513685 0.10892889 0.10229104 0.09524949 0.08783203 0.08006794 0.07198786 0.06362368 0.05500840 0.04617603 0.03716143 0.02800016 0.01872839 0.00938271 -0.00000000 -0.00938271 -0.01872839 -0.02800016 -0.03716143 -0.04617603 -0.05500840 -0.06362368 -0.07198786 -0.08006794 -0.08783203 -0.09524949 -0.10229104 -0.10892889 -0.11513685 -0.12089042 -0.12616689 -0.13094544 -0.13520720 -0.13893537 -0.14211522 -0.14473420 -0.14678199 -0.14825049 -0.14913392 -0.14942878 -0.14913392 -0.14825049 -0.14678199 -0.14473420 -0.14211522 -0.13893537 -0.13520720 -0.13094544 -0.12616689 -0.12089042 -0.11513685 -0.10892889 -0.10229104 -0.09524949 -0.08783203 -0.08006794 -0.07198786 -0.06362368 -0.05500840 -0.04617603 -0.03716143 -0.02800016 -0.01872839 -0.00938271 -0.00000000 0.00938271 0.01872839 0.02800016 0.03716143 0.04617603 0.05500840 0.06362368 0.07198786 0.08006794 0.08783203 0.09524949 0.10229104 0.10892889 0.11513685 0.12089042 0.12616689 0.13094544 0.13520720 0.13893537 0.14211522 0.14473420 0.14678199 0.14825049 0.14913392 0.14942878 0.16062166 0.16030471 0.15935511 0.15777661 0.15557543 0.15276027 0.14934224 0.14533482 0.14075383 0.13561735 0.12994565 0.12376111 0.11708815 0.10995309 0.10238410 0.09441104 0.08606539 0.07738007 0.06838938 0.05912878 0.04963482 0.03994498 0.03009750 0.02013123 0.01008552 -0.00000000 -0.01008552 -0.02013123 -0.03009750 -0.03994498 -0.04963482 -0.05912878 -0.06838938 -0.07738007 -0.08606539 -0.09441104 -0.10238410 -0.10995309 -0.11708815 -0.12376111 -0.12994565 -0.13561735 -0.14075383 -0.14533482 -0.14934224 -0.15276027 -0.15557543 -0.15777661 -0.15935511 -0.16030471 -0.16062166 -0.16030471 -0.15935511 -0.15777661 -0.15557543 -0.15276027 -0.14934224 -0.14533482 -0.14075383 -0.13561735 -0.12994565 -0.12376111 -0.11708815 -0.10995309 -0.10238410 -0.09441104 -0.08606539 -0.07738007 -0.06838938 -0.05912878 -0.04963482 -0.03994498 -0.03009750 -0.02013123 -0.01008552 -0.00000000 0.01008552 0.02013123 0.03009750 0.03994498 0.04963482 0.05912878 0.06838938 0.07738007 0.08606539 0.09441104 0.10238410 0.10995309 0.11708815 0.12376111 0.12994565 0.13561735 0.14075383 0.14533482 0.14934224 0.15276027 0.15557543 0.15777661 0.15935511 0.16030471 0.16062166 0.17293382 0.17259258 0.17157019 0.16987069 0.16750079 0.16446984 0.16078980 0.15647520 0.15154307 0.14601286 0.13990640 0.13324780 0.12606333 0.11838135 0.11023217 0.10164795 0.09266258 0.08331151 0.07363164 0.06366119 0.05343949 0.04300689 0.03240457 0.02167436 0.01085860 -0.00000000 -0.01085860 -0.02167436 -0.03240457 -0.04300689 -0.05343949 -0.06366119 -0.07363164 -0.08331151 -0.09266258 -0.10164795 -0.11023217 -0.11838135 -0.12606333 -0.13324780 -0.13990640 -0.14601286 -0.15154307 -0.15647520 -0.16078980 -0.16446984 -0.16750079 -0.16987069 -0.17157019 -0.17259258 -0.17293382 -0.17259258 -0.17157019 -0.16987069 -0.16750079 -0.16446984 -0.16078980 -0.15647520 -0.15154307 -0.14601286 -0.13990640 -0.13324780 -0.12606333 -0.11838135 -0.11023217 -0.10164795 -0.09266258 -0.0833